-- Generated [
-- Format      : ECLIPSE keywords (grid geometry and properties) (ASCII)
-- Exported by : Petrel 2022.4.0 Schlumberger
-- User name   : ia2006
-- Date        : Monday, July 24 2023 15:06:33
-- Project     : PM_IdJA_Late_June_2023.pet
-- Grid        : JENERA
-- Generated ]

PINCH                                  -- Generated : Petrel
  /

NOECHO                                 -- Generated : Petrel

MAPUNITS                               -- Generated : Petrel
  METRES /

MAPAXES                                -- Generated : Petrel
  407000 736000 407000 735000 408000 735000 /

GRIDUNIT                               -- Generated : Petrel
  METRES MAP /

SPECGRID                               -- Generated : Petrel
  110 100 5 1 F /

COORDSYS                               -- Generated : Petrel
  1 5 /

COORD                                  -- Generated : Petrel
  407000 735000 1974.930664 407000 735000 2974.930664 407200 735000 1971.432983 407200 735000 2971.433105 407400 735000 1969.699585
  407400 735000 2969.699707 407600 735000 1965.593384 407600 735000 2965.593262 407800 735000 1964.050903 407800 735000 2964.050781
  408000 735000 1965.276733 408000 735000 2965.276855 408200 735000 1961.192871 408200 735000 2961.192871 408400 735000 1957.001099
  408400 735000 2957.000977 408600 735000 1955.988647 408600 735000 2955.98877 408800 735000 1954.045654 408800 735000 2954.045654
  409000 735000 1952.353271 409000 735000 2952.353271 409200 735000 1951.927856 409200 735000 2951.927734 409400 735000 1949.801025
  409400 735000 2949.801025 409600 735000 1947.574097 409600 735000 2947.574219 409800 735000 1944.886108 409800 735000 2944.88623
  410000 735000 1943.492432 410000 735000 2943.492432 410200 735000 1942.828491 410200 735000 2942.828613 410400 735000 1940.66394
  410400 735000 2940.664063 410600 735000 1941.342163 410600 735000 2941.342285 410800 735000 1942.55542 410800 735000 2942.55542
  411000 735000 1944.619385 411000 735000 2944.619385 411200 735000 1950.066162 411200 735000 2950.066162 411400 735000 1949.271729
  411400 735000 2949.271729 411600 735000 1951.944702 411600 735000 2951.944824 411800 735000 1958.75354 411800 735000 2958.753418
  412000 735000 1960.897583 412000 735000 2960.897461 412200 735000 1963.077515 412200 735000 2963.077637 412400 735000 1961.542358
  412400 735000 2961.54248 412600 735000 1958.959106 412600 735000 2958.958984 412800 735000 1958.239868 412800 735000 2958.239746
  413000 735000 1960.064209 413000 735000 2960.064209 413200 735000 1959.102783 413200 735000 2959.102783 413400 735000 1958.612549
  413400 735000 2958.612549 413600 735000 1954.017944 413600 735000 2954.018066 413800 735000 1955.076904 413800 735000 2955.076904
  414000 735000 1955.140991 414000 735000 2955.141113 414200 735000 1953.753906 414200 735000 2953.753906 414400 735000 1952.677368
  414400 735000 2952.677246 414600 735000 1952.872559 414600 735000 2952.872559 414800 735000 1952.394409 414800 735000 2952.394531
  415000 735000 1948.342041 415000 735000 2948.342041 415200 735000 1946.059937 415200 735000 2946.060059 415400 735000 1943.607666
  415400 735000 2943.607666 415600 735000 1940.494263 415600 735000 2940.494141 415800 735000 1937.134155 415800 735000 2937.134277
  416000 735000 1932.674072 416000 735000 2932.674072 416200 735000 1928.020996 416200 735000 2928.020996 416400 735000 1925.483887
  416400 735000 2925.483887 416600 735000 1922.936646 416600 735000 2922.936523 416800 735000 1921.330811 416800 735000 2921.330811
  417000 735000 1922.05542 417000 735000 2922.05542 417200 735000 1921.523071 417200 735000 2921.522949 417400 735000 1918.985596
  417400 735000 2918.985596 417600 735000 1917.638672 417600 735000 2917.638672 417800 735000 1917.411865 417800 735000 2917.411865
  418000 735000 1916.02063 418000 735000 2916.020508 418200 735000 1914.559082 418200 735000 2914.559082 418400 735000 1913.607788
  418400 735000 2913.60791 418600 735000 1913.325684 418600 735000 2913.325684 418800 735000 1914.924805 418800 735000 2914.924805
  419000 735000 1912.677368 419000 735000 2912.677246 419200 735000 1911.329102 419200 735000 2911.329102 419400 735000 1911.307983
  419400 735000 2911.308105 419600 735000 1911.926147 419600 735000 2911.92627 419800 735000 1908.390259 419800 735000 2908.390137
  420000 735000 1906.921387 420000 735000 2906.921387 420200 735000 1907.722534 420200 735000 2907.722656 420400 735000 1906.498657
  420400 735000 2906.498535 420600 735000 1906.588623 420600 735000 2906.588623 420800 735000 1906.037354 420800 735000 2906.037354
  421000 735000 1903.757324 421000 735000 2903.757324 421200 735000 1901.391113 421200 735000 2901.391113 421400 735000 1896.83728
  421400 735000 2896.837402 421600 735000 1895.522095 421600 735000 2895.521973 421800 735000 1892.623779 421800 735000 2892.623779
  422000 735000 1884.194214 422000 735000 2884.194336 422200 735000 1874.995605 422200 735000 2874.995605 422400 735000 1862.874756
  422400 735000 2862.874756 422600 735000 1852.466309 422600 735000 2852.466309 422800 735000 1842.033936 422800 735000 2842.033936
  423000 735000 1831.3396 423000 735000 2831.3396 423200 735000 1819.653198 423200 735000 2819.65332 423400 735000 1808.372925
  423400 735000 2808.373047 423600 735000 1796.059082 423600 735000 2796.059082 423800 735000 1780.117188 423800 735000 2780.117188
  424000 735000 1767.355225 424000 735000 2767.355225 424200 735000 1756.728027 424200 735000 2756.728027 424400 735000 1742.265869
  424400 735000 2742.265869 424600 735000 1729.137573 424600 735000 2729.137695 424800 735000 1715.512207 424800 735000 2715.512207
  425000 735000 1702.226074 425000 735000 2702.226074 425200 735000 1693.944214 425200 735000 2693.944336 425400 735000 1688.648193
  425400 735000 2688.648193 425600 735000 1683.322021 425600 735000 2683.322021 425800 735000 1677.752319 425800 735000 2677.752441
  426000 735000 1672.184082 426000 735000 2672.184082 426200 735000 1666.392944 426200 735000 2666.393066 426400 735000 1662.033081
  426400 735000 2662.033203 426600 735000 1656.440918 426600 735000 2656.440918 426800 735000 1647.535034 426800 735000 2647.535156
  427000 735000 1642.664917 427000 735000 2642.665039 427200 735000 1633.768799 427200 735000 2633.768799 427400 735000 1628.155884
  427400 735000 2628.155762 427600 735000 1604.320068 427600 735000 2604.320068 427800 735000 1566.548218 427800 735000 2566.54834
  428000 735000 1571.128052 428000 735000 2571.12793 428200 735000 1568.467041 428200 735000 2568.467041 428400 735000 1565.733765
  428400 735000 2565.733887 428600 735000 1558.305176 428600 735000 2558.305176 428800 735000 1551.528198 428800 735000 2551.52832
  429000 735000 1545.39563 429000 735000 2545.395508 407000 734800 1977.844604 407000 734800 2977.844727 407200 734800 1972.22522
  407200 734800 2972.225098 407400 734800 1968.141113 407400 734800 2968.141113 407600 734800 1966.140869 407600 734800 2966.140869
  407800 734800 1966.446411 407800 734800 2966.446289 408000 734800 1967.454956 408000 734800 2967.455078 408200 734800 1964.896484
  408200 734800 2964.896484 408400 734800 1961.784912 408400 734800 2961.784912 408600 734800 1960.214844 408600 734800 2960.214844
  408800 734800 1958.217407 408800 734800 2958.217285 409000 734800 1955.224121 409000 734800 2955.224121 409200 734800 1953.371094
  409200 734800 2953.371094 409400 734800 1951.801758 409400 734800 2951.801758 409600 734800 1949.123047 409600 734800 2949.123047
  409800 734800 1946.699829 409800 734800 2946.699707 410000 734800 1946.707031 410000 734800 2946.707031 410200 734800 1946.568237
  410200 734800 2946.568359 410400 734800 1946.622314 410400 734800 2946.622314 410600 734800 1947.477539 410600 734800 2947.477539
  410800 734800 1948.179932 410800 734800 2948.179932 411000 734800 1950.130493 411000 734800 2950.130371 411200 734800 1953.373535
  411200 734800 2953.373535 411400 734800 1954.985962 411400 734800 2954.98584 411600 734800 1955.769531 411600 734800 2955.769531
  411800 734800 1961.849609 411800 734800 2961.849609 412000 734800 1963.193115 412000 734800 2963.193115 412200 734800 1964.23291
  412200 734800 2964.23291 412400 734800 1963.820923 412400 734800 2963.820801 412600 734800 1961.158447 412600 734800 2961.158447
  412800 734800 1960.700928 412800 734800 2960.700928 413000 734800 1961.761719 413000 734800 2961.761719 413200 734800 1961.979004
  413200 734800 2961.979004 413400 734800 1961.569946 413400 734800 2961.569824 413600 734800 1960.945435 413600 734800 2960.945313
  413800 734800 1959.486938 413800 734800 2959.486816 414000 734800 1956.344604 414000 734800 2956.344727 414200 734800 1956.024292
  414200 734800 2956.024414 414400 734800 1955.093018 414400 734800 2955.093018 414600 734800 1955.699463 414600 734800 2955.699463
  414800 734800 1953.991333 414800 734800 2953.991211 415000 734800 1951.389648 415000 734800 2951.389648 415200 734800 1948.541992
  415200 734800 2948.541992 415400 734800 1945.773193 415400 734800 2945.773193 415600 734800 1942.735962 415600 734800 2942.73584
  415800 734800 1941.958252 415800 734800 2941.958252 416000 734800 1938.663208 416000 734800 2938.663086 416200 734800 1934.984863
  416200 734800 2934.984863 416400 734800 1931.345215 416400 734800 2931.345215 416600 734800 1927.512573 416600 734800 2927.512695
  416800 734800 1925.55249 416800 734800 2925.55249 417000 734800 1923.214844 417000 734800 2923.214844 417200 734800 1921.309937
  417200 734800 2921.310059 417400 734800 1919.122559 417400 734800 2919.122559 417600 734800 1918.612915 417600 734800 2918.612793
  417800 734800 1917.480347 417800 734800 2917.480469 418000 734800 1916.894653 418000 734800 2916.894531 418200 734800 1916.272949
  418200 734800 2916.272949 418400 734800 1915.214233 418400 734800 2915.214355 418600 734800 1916.178467 418600 734800 2916.178467
  418800 734800 1917.627563 418800 734800 2917.627441 419000 734800 1917.222412 419000 734800 2917.222412 419200 734800 1916.923828
  419200 734800 2916.923828 419400 734800 1916.165894 419400 734800 2916.166016 419600 734800 1912.948608 419600 734800 2912.94873
  419800 734800 1910.432373 419800 734800 2910.432373 420000 734800 1909.694702 420000 734800 2909.694824 420200 734800 1910.406372
  420200 734800 2910.40625 420400 734800 1911.775879 420400 734800 2911.775879 420600 734800 1910.991455 420600 734800 2910.991455
  420800 734800 1910.345825 420800 734800 2910.345703 421000 734800 1908.533936 421000 734800 2908.533936 421200 734800 1905.181274
  421200 734800 2905.181152 421400 734800 1900.175903 421400 734800 2900.175781 421600 734800 1896.477661 421600 734800 2896.477539
  421800 734800 1892.519653 421800 734800 2892.519531 422000 734800 1887.139893 422000 734800 2887.139893 422200 734800 1877.575684
  422200 734800 2877.575684 422400 734800 1865.50415 422400 734800 2865.50415 422600 734800 1856.095337 422600 734800 2856.095215
  422800 734800 1847.068848 422800 734800 2847.068848 423000 734800 1836.223022 423000 734800 2836.223145 423200 734800 1823.654663
  423200 734800 2823.654785 423400 734800 1811.135254 423400 734800 2811.135254 423600 734800 1799.234741 423600 734800 2799.234863
  423800 734800 1786.25708 423800 734800 2786.25708 424000 734800 1771.881836 424000 734800 2771.881836 424200 734800 1759.516968
  424200 734800 2759.51709 424400 734800 1746.297607 424400 734800 2746.297607 424600 734800 1731.898193 424600 734800 2731.898193
  424800 734800 1718.073608 424800 734800 2718.07373 425000 734800 1706.162354 425000 734800 2706.162354 425200 734800 1696.714355
  425200 734800 2696.714355 425400 734800 1689.277588 425400 734800 2689.277588 425600 734800 1682.881226 425600 734800 2682.881348
  425800 734800 1677.356079 425800 734800 2677.355957 426000 734800 1672.895386 426000 734800 2672.895508 426200 734800 1667.498901
  426200 734800 2667.499023 426400 734800 1663.615112 426400 734800 2663.615234 426600 734800 1657.607422 426600 734800 2657.607422
  426800 734800 1650.71228 426800 734800 2650.712402 427000 734800 1643.706055 427000 734800 2643.706055 427200 734800 1636.831299
  427200 734800 2636.831299 427400 734800 1630.25708 427400 734800 2630.25708 427600 734800 1636.94519 427600 734800 2636.945313
  427800 734800 1567.637939 427800 734800 2567.637939 428000 734800 1573.807007 428000 734800 2573.807129 428200 734800 1570.081787
  428200 734800 2570.081787 428400 734800 1566.429932 428400 734800 2566.429932 428600 734800 1559.254517 428600 734800 2559.254395
  428800 734800 1549.653687 428800 734800 2549.653809 429000 734800 1543.539795 429000 734800 2543.539795 407000 734600 1982.913452
  407000 734600 2982.913574 407200 734600 1978.044067 407200 734600 2978.043945 407400 734600 1973.505249 407400 734600 2973.505371
  407600 734600 1972.961304 407600 734600 2972.961426 407800 734600 1972.208252 407800 734600 2972.208252 408000 734600 1969.244873
  408000 734600 2969.244873 408200 734600 1967.062012 408200 734600 2967.062012 408400 734600 1965.676758 408400 734600 2965.676758
  408600 734600 1966.368896 408600 734600 2966.368896 408800 734600 1965.509033 408800 734600 2965.509033 409000 734600 1963.382202
  409000 734600 2963.382324 409200 734600 1959.450317 409200 734600 2959.450195 409400 734600 1955.859009 409400 734600 2955.858887
  409600 734600 1954.414429 409600 734600 2954.414551 409800 734600 1953.494263 409800 734600 2953.494141 410000 734600 1953.999023
  410000 734600 2953.999023 410200 734600 1955.373291 410200 734600 2955.373291 410400 734600 1954.891724 410400 734600 2954.891602
  410600 734600 1957.259766 410600 734600 2957.259766 410800 734600 1958.528809 410800 734600 2958.528809 411000 734600 1960.204346
  411000 734600 2960.204346 411200 734600 1961.074463 411200 734600 2961.074463 411400 734600 1962.95105 411400 734600 2962.951172
  411600 734600 1963.635376 411600 734600 2963.635254 411800 734600 1963.621094 411800 734600 2963.621094 412000 734600 1966.18689
  412000 734600 2966.187012 412200 734600 1965.002441 412200 734600 2965.002441 412400 734600 1966.790405 412400 734600 2966.790527
  412600 734600 1964.619873 412600 734600 2964.619873 412800 734600 1964.814087 412800 734600 2964.813965 413000 734600 1965.111328
  413000 734600 2965.111328 413200 734600 1965.288208 413200 734600 2965.288086 413400 734600 1966.499512 413400 734600 2966.499512
  413600 734600 1966.420288 413600 734600 2966.42041 413800 734600 1963.523438 413800 734600 2963.523438 414000 734600 1963.569458
  414000 734600 2963.569336 414200 734600 1965.039185 414200 734600 2965.039063 414400 734600 1961.287598 414400 734600 2961.287598
  414600 734600 1959.501953 414600 734600 2959.501953 414800 734600 1954.738281 414800 734600 2954.738281 415000 734600 1953.216675
  415000 734600 2953.216797 415200 734600 1952.483276 415200 734600 2952.483398 415400 734600 1950.29126 415400 734600 2950.29126
  415600 734600 1947.908936 415600 734600 2947.908936 415800 734600 1947.73877 415800 734600 2947.73877 416000 734600 1944.616699
  416000 734600 2944.616699 416200 734600 1940.337769 416200 734600 2940.337891 416400 734600 1936.062988 416400 734600 2936.062988
  416600 734600 1932.082642 416600 734600 2932.08252 416800 734600 1928.390747 416800 734600 2928.390625 417000 734600 1925.236206
  417000 734600 2925.236328 417200 734600 1921.503784 417200 734600 2921.503906 417400 734600 1920.085327 417400 734600 2920.085449
  417600 734600 1918.859497 417600 734600 2918.859375 417800 734600 1919.096802 417800 734600 2919.09668 418000 734600 1920.935425
  418000 734600 2920.935547 418200 734600 1921.022949 418200 734600 2921.022949 418400 734600 1919.594727 418400 734600 2919.594727
  418600 734600 1919.901855 418600 734600 2919.901855 418800 734600 1920.995239 418800 734600 2920.995117 419000 734600 1920.336914
  419000 734600 2920.336914 419200 734600 1920.023071 419200 734600 2920.022949 419400 734600 1919.582397 419400 734600 2919.58252
  419600 734600 1916.90918 419600 734600 2916.90918 419800 734600 1913.070679 419800 734600 2913.070801 420000 734600 1911.716675
  420000 734600 2911.716797 420200 734600 1913.113037 420200 734600 2913.113037 420400 734600 1912.923218 420400 734600 2912.92334
  420600 734600 1912.839355 420600 734600 2912.839355 420800 734600 1912.001099 420800 734600 2912.000977 421000 734600 1912.781738
  421000 734600 2912.781738 421200 734600 1908.409424 421200 734600 2908.409424 421400 734600 1904.371948 421400 734600 2904.37207
  421600 734600 1898.442749 421600 734600 2898.442871 421800 734600 1889.449585 421800 734600 2889.449707 422000 734600 1883.358765
  422000 734600 2883.358887 422200 734600 1875.911743 422200 734600 2875.911621 422400 734600 1866.969727 422400 734600 2866.969727
  422600 734600 1860.363403 422600 734600 2860.363281 422800 734600 1852.697754 422800 734600 2852.697754 423000 734600 1841.419678
  423000 734600 2841.419678 423200 734600 1828.534546 423200 734600 2828.534668 423400 734600 1818.31543 423400 734600 2818.31543
  423600 734600 1804.859253 423600 734600 2804.859375 423800 734600 1789.738403 423800 734600 2789.738281 424000 734600 1777.034058
  424000 734600 2777.03418 424200 734600 1761.927124 424200 734600 2761.927246 424400 734600 1749.529175 424400 734600 2749.529297
  424600 734600 1737.552734 424600 734600 2737.552734 424800 734600 1721.948364 424800 734600 2721.948242 425000 734600 1709.442261
  425000 734600 2709.442383 425200 734600 1699.837524 425200 734600 2699.837402 425400 734600 1691.053223 425400 734600 2691.053223
  425600 734600 1684.09314 425600 734600 2684.093262 425800 734600 1677.135986 425800 734600 2677.135986 426000 734600 1672.201782
  426000 734600 2672.20166 426200 734600 1667.791504 426200 734600 2667.791504 426400 734600 1663.669922 426400 734600 2663.669922
  426600 734600 1658.951172 426600 734600 2658.951172 426800 734600 1650.839722 426800 734600 2650.839844 427000 734600 1644.661011
  427000 734600 2644.661133 427200 734600 1638.622437 427200 734600 2638.622559 427400 734600 1634.638428 427400 734600 2634.638428
  427600 734600 1635.586182 427600 734600 2635.586182 427800 734600 1580.712646 427800 734600 2580.712646 428000 734600 1568.353271
  428000 734600 2568.353271 428200 734600 1571.306519 428200 734600 2571.306641 428400 734600 1566.597778 428400 734600 2566.597656
  428600 734600 1560.434937 428600 734600 2560.435059 428800 734600 1550.66687 428800 734600 2550.666992 429000 734600 1544.66272
  429000 734600 2544.662598 407000 734400 1982.401123 407000 734400 2982.401123 407200 734400 1978.713013 407200 734400 2978.712891
  407400 734400 1977.532471 407400 734400 2977.532471 407600 734400 1978.012817 407600 734400 2978.012695 407800 734400 1975.37793
  407800 734400 2975.37793 408000 734400 1970.87915 408000 734400 2970.87915 408200 734400 1968.380371 408200 734400 2968.380371
  408400 734400 1965.988403 408400 734400 2965.988281 408600 734400 1965.515015 408600 734400 2965.515137 408800 734400 1967.339478
  408800 734400 2967.339355 409000 734400 1965.296021 409000 734400 2965.295898 409200 734400 1962.93396 409200 734400 2962.934082
  409400 734400 1960.834351 409400 734400 2960.834473 409600 734400 1959.637939 409600 734400 2959.637939 409800 734400 1957.96936
  409800 734400 2957.969238 410000 734400 1957.858398 410000 734400 2957.858398 410200 734400 1957.689575 410200 734400 2957.689453
  410400 734400 1959.234375 410400 734400 2959.234375 410600 734400 1960.345093 410600 734400 2960.345215 410800 734400 1962.709473
  410800 734400 2962.709473 411000 734400 1963.643555 411000 734400 2963.643555 411200 734400 1964.50061 411200 734400 2964.500488
  411400 734400 1967.724365 411400 734400 2967.724365 411600 734400 1970.233521 411600 734400 2970.233398 411800 734400 1971.253662
  411800 734400 2971.253662 412000 734400 1968.871704 412000 734400 2968.871582 412200 734400 1967.399658 412200 734400 2967.399658
  412400 734400 1968.532227 412400 734400 2968.532227 412600 734400 1970.824585 412600 734400 2970.824707 412800 734400 1968.781738
  412800 734400 2968.781738 413000 734400 1969.565796 413000 734400 2969.565918 413200 734400 1968.108032 413200 734400 2968.10791
  413400 734400 1967.111572 413400 734400 2967.111572 413600 734400 1968.192383 413600 734400 2968.192383 413800 734400 1967.487427
  413800 734400 2967.487305 414000 734400 1970.515137 414000 734400 2970.515137 414200 734400 1970.952393 414200 734400 2970.952393
  414400 734400 1968.168213 414400 734400 2968.168213 414600 734400 1965.835571 414600 734400 2965.835449 414800 734400 1962.226563
  414800 734400 2962.226563 415000 734400 1959.547852 415000 734400 2959.547852 415200 734400 1957.233398 415200 734400 2957.233398
  415400 734400 1955.902222 415400 734400 2955.902344 415600 734400 1952.589355 415600 734400 2952.589355 415800 734400 1950.958008
  415800 734400 2950.958008 416000 734400 1947.466797 416000 734400 2947.466797 416200 734400 1944.541016 416200 734400 2944.541016
  416400 734400 1940.760498 416400 734400 2940.760498 416600 734400 1935.53064 416600 734400 2935.530762 416800 734400 1931.839844
  416800 734400 2931.839844 417000 734400 1928.279663 417000 734400 2928.279785 417200 734400 1924.561035 417200 734400 2924.561035
  417400 734400 1923.516724 417400 734400 2923.516602 417600 734400 1920.807739 417600 734400 2920.807617 417800 734400 1920.670288
  417800 734400 2920.67041 418000 734400 1922.202759 418000 734400 2922.202637 418200 734400 1924.947632 418200 734400 2924.947754
  418400 734400 1924.467407 418400 734400 2924.467285 418600 734400 1922.664185 418600 734400 2922.664063 418800 734400 1922.51709
  418800 734400 2922.51709 419000 734400 1923.75061 419000 734400 2923.750488 419200 734400 1922.986816 419200 734400 2922.986816
  419400 734400 1922.552612 419400 734400 2922.552734 419600 734400 1920.703491 419600 734400 2920.703613 419800 734400 1919.025269
  419800 734400 2919.025391 420000 734400 1918.444824 420000 734400 2918.444824 420200 734400 1918.774536 420200 734400 2918.774414
  420400 734400 1915.930908 420400 734400 2915.930908 420600 734400 1913.985107 420600 734400 2913.985107 420800 734400 1913.340698
  420800 734400 2913.34082 421000 734400 1912.343018 421000 734400 2912.343018 421200 734400 1910.348389 421200 734400 2910.348389
  421400 734400 1905.014038 421400 734400 2905.01416 421600 734400 1898.584595 421600 734400 2898.584473 421800 734400 1890.107544
  421800 734400 2890.107422 422000 734400 1886.144897 422000 734400 2886.14502 422200 734400 1881.439697 422200 734400 2881.439697
  422400 734400 1875.056519 422400 734400 2875.056641 422600 734400 1867.741089 422600 734400 2867.741211 422800 734400 1858.415894
  422800 734400 2858.416016 423000 734400 1847.871094 423000 734400 2847.871094 423200 734400 1837.421021 423200 734400 2837.420898
  423400 734400 1825.252197 423400 734400 2825.252197 423600 734400 1810.234741 423600 734400 2810.234863 423800 734400 1794.202148
  423800 734400 2794.202148 424000 734400 1781.378906 424000 734400 2781.378906 424200 734400 1768.084961 424200 734400 2768.084961
  424400 734400 1753.859497 424400 734400 2753.859375 424600 734400 1740.400635 424600 734400 2740.400635 424800 734400 1725.858521
  424800 734400 2725.858398 425000 734400 1713.891113 425000 734400 2713.891113 425200 734400 1703.085083 425200 734400 2703.084961
  425400 734400 1694.911377 425400 734400 2694.911377 425600 734400 1688.057495 425600 734400 2688.057617 425800 734400 1681.439209
  425800 734400 2681.439209 426000 734400 1675.919189 426000 734400 2675.919189 426200 734400 1669.437744 426200 734400 2669.437744
  426400 734400 1662.684814 426400 734400 2662.684814 426600 734400 1654.515137 426600 734400 2654.515137 426800 734400 1648.054321
  426800 734400 2648.054199 427000 734400 1643.790039 427000 734400 2643.790039 427200 734400 1640.515747 427200 734400 2640.515625
  427400 734400 1637.077271 427400 734400 2637.077148 427600 734400 1640.07605 427600 734400 2640.076172 427800 734400 1595.960815
  427800 734400 2595.960938 428000 734400 1560.004395 428000 734400 2560.004395 428200 734400 1567.462402 428200 734400 2567.462402
  428400 734400 1563.006104 428400 734400 2563.006104 428600 734400 1560.454346 428600 734400 2560.454346 428800 734400 1553.473999
  428800 734400 2553.474121 429000 734400 1547.102539 429000 734400 2547.102539 407000 734200 1985.943481 407000 734200 2985.943359
  407200 734200 1982.760498 407200 734200 2982.760498 407400 734200 1979.229614 407400 734200 2979.229492 407600 734200 1977.665771
  407600 734200 2977.665771 407800 734200 1975.554443 407800 734200 2975.554443 408000 734200 1971.173462 408000 734200 2971.17334
  408200 734200 1970.183228 408200 734200 2970.183105 408400 734200 1970.07019 408400 734200 2970.070313 408600 734200 1969.379395
  408600 734200 2969.379395 408800 734200 1969.01062 408800 734200 2969.010742 409000 734200 1969.624512 409000 734200 2969.624512
  409200 734200 1969.206787 409200 734200 2969.206787 409400 734200 1965.560547 409400 734200 2965.560547 409600 734200 1967.069824
  409600 734200 2967.069824 409800 734200 1965.268677 409800 734200 2965.268555 410000 734200 1964.32312 410000 734200 2964.323242
  410200 734200 1964.215942 410200 734200 2964.21582 410400 734200 1964.081055 410400 734200 2964.081055 410600 734200 1965.607666
  410600 734200 2965.607666 410800 734200 1967.650146 410800 734200 2967.650146 411000 734200 1968.1604 411000 734200 2968.1604
  411200 734200 1968.242188 411200 734200 2968.242188 411400 734200 1969.668579 411400 734200 2969.668457 411600 734200 1972.2677
  411600 734200 2972.267578 411800 734200 1972.699219 411800 734200 2972.699219 412000 734200 1971.200928 412000 734200 2971.200928
  412200 734200 1968.214844 412200 734200 2968.214844 412400 734200 1969.557495 412400 734200 2969.557617 412600 734200 1972.532715
  412600 734200 2972.532715 412800 734200 1974.429199 412800 734200 2974.429199 413000 734200 1973.408813 413000 734200 2973.408691
  413200 734200 1972.763184 413200 734200 2972.763184 413400 734200 1971.321289 413400 734200 2971.321289 413600 734200 1972.008911
  413600 734200 2972.008789 413800 734200 1971.662598 413800 734200 2971.662598 414000 734200 1973.399048 414000 734200 2973.398926
  414200 734200 1973.588135 414200 734200 2973.588135 414400 734200 1971.387817 414400 734200 2971.387695 414600 734200 1969.640259
  414600 734200 2969.640137 414800 734200 1968.481445 414800 734200 2968.481445 415000 734200 1966.623169 415000 734200 2966.623047
  415200 734200 1964.931885 415200 734200 2964.931885 415400 734200 1962.356689 415400 734200 2962.356689 415600 734200 1959.949341
  415600 734200 2959.949219 415800 734200 1957.530518 415800 734200 2957.530518 416000 734200 1956.075806 416000 734200 2956.075684
  416200 734200 1951.063232 416200 734200 2951.063232 416400 734200 1947.994019 416400 734200 2947.994141 416600 734200 1944.646851
  416600 734200 2944.646973 416800 734200 1940.781372 416800 734200 2940.78125 417000 734200 1938.592285 417000 734200 2938.592285
  417200 734200 1936.027344 417200 734200 2936.027344 417400 734200 1933.197754 417400 734200 2933.197754 417600 734200 1931.730225
  417600 734200 2931.730225 417800 734200 1928.988647 417800 734200 2928.98877 418000 734200 1928.39917 418000 734200 2928.39917
  418200 734200 1929.038818 418200 734200 2929.038818 418400 734200 1929.029663 418400 734200 2929.029785 418600 734200 1928.591919
  418600 734200 2928.591797 418800 734200 1927.26355 418800 734200 2927.263672 419000 734200 1927.564575 419000 734200 2927.564453
  419200 734200 1928.279175 419200 734200 2928.279297 419400 734200 1928.635498 419400 734200 2928.635498 419600 734200 1928.478149
  419600 734200 2928.478027 419800 734200 1928.506104 419800 734200 2928.506104 420000 734200 1927.606934 420000 734200 2927.606934
  420200 734200 1926.55127 420200 734200 2926.55127 420400 734200 1922.979126 420400 734200 2922.979004 420600 734200 1919.96936
  420600 734200 2919.969238 420800 734200 1918.721069 420800 734200 2918.721191 421000 734200 1915.853882 421000 734200 2915.854004
  421200 734200 1911.938232 421200 734200 2911.938232 421400 734200 1906.8927 421400 734200 2906.892578 421600 734200 1899.30127
  421600 734200 2899.30127 421800 734200 1891.790894 421800 734200 2891.791016 422000 734200 1889.258057 422000 734200 2889.258057
  422200 734200 1885.945679 422200 734200 2885.945801 422400 734200 1880.947144 422400 734200 2880.947266 422600 734200 1872.392456
  422600 734200 2872.392578 422800 734200 1862.268188 422800 734200 2862.268066 423000 734200 1851.449707 423000 734200 2851.449707
  423200 734200 1839.872803 423200 734200 2839.872803 423400 734200 1827.747925 423400 734200 2827.748047 423600 734200 1813.133667
  423600 734200 2813.133789 423800 734200 1800.957275 423800 734200 2800.957275 424000 734200 1788.53833 424000 734200 2788.53833
  424200 734200 1776.237183 424200 734200 2776.237305 424400 734200 1761.699585 424400 734200 2761.699707 424600 734200 1747.441406
  424600 734200 2747.441406 424800 734200 1732.583984 424800 734200 2732.583984 425000 734200 1717.703979 425000 734200 2717.704102
  425200 734200 1706.327881 425200 734200 2706.327881 425400 734200 1698.970947 425400 734200 2698.970947 425600 734200 1691.764038
  425600 734200 2691.76416 425800 734200 1684.367554 425800 734200 2684.367676 426000 734200 1676.233154 426000 734200 2676.233154
  426200 734200 1666.372803 426200 734200 2666.372803 426400 734200 1659.58374 426400 734200 2659.58374 426600 734200 1653.608643
  426600 734200 2653.608643 426800 734200 1649.383179 426800 734200 2649.383301 427000 734200 1644.55542 427000 734200 2644.55542
  427200 734200 1643.08252 427200 734200 2643.08252 427400 734200 1641.491577 427400 734200 2641.491699 427600 734200 1637.897705
  427600 734200 2637.897705 427800 734200 1632.375732 427800 734200 2632.375732 428000 734200 1554.562012 428000 734200 2554.562012
  428200 734200 1562.682373 428200 734200 2562.682373 428400 734200 1564.449829 428400 734200 2564.449707 428600 734200 1560.302368